/*--------------------------------*- C++ -*----------------------------------*\
| =========                 |                                                 |
| \\      /  F ield         | OpenFOAM: The Open Source CFD Toolbox           |
|  \\    /   O peration     | Version:  v2006                                 |
|   \\  /    A nd           | Website:  www.openfoam.com                      |
|    \\/     M anipulation  |                                                 |
\*---------------------------------------------------------------------------*/
FoamFile
{
    version     2.0;
    format      binary;
    class       volScalarField;
    arch        "LSB;label=32;scalar=64";
    location    "0";
    object      alphat;
}
// * * * * * * * * * * * * * * * * * * * * * * * * * * * * * * * * * * * * * //

dimensions      [1 -1 -1 0 0 0 0];


internalField   uniform 0;

boundaryField
{
    front
    {
        type            wedge;
    }
    back
    {
        type            wedge;
    }
    walls
    {
        type            compressible::alphatWallFunction;
        value           uniform 0;
    }
    fuelInlet
    {
        /*
        type            fixedValue;
        value           uniform 0.00085899;
        */
        type            compressible::alphatWallFunction;
        value           uniform 0;
    }
    oxidizerInlet
    {
        /*
        type            fixedValue;
        value           uniform 0.00033134;
        */
        type            compressible::alphatWallFunction;
        value           uniform 0;
        //
    }
    outlet
    {
        type            zeroGradient;
    }
    axis
    {
        type            empty;
    }
}


// ************************************************************************* //
