/*--------------------------------*- C++ -*----------------------------------*\
| =========                 |                                                 |
| \\      /  F ield         | OpenFOAM: The Open Source CFD Toolbox           |
|  \\    /   O peration     | Version:  v2006                                 |
|   \\  /    A nd           | Website:  www.openfoam.com                      |
|    \\/     M anipulation  |                                                 |
\*---------------------------------------------------------------------------*/
FoamFile
{
    version     2.0;
    format      binary;
    class       volScalarField;
    arch        "LSB;label=32;scalar=64";
    location    "0";
    object      epsilon;
}
// * * * * * * * * * * * * * * * * * * * * * * * * * * * * * * * * * * * * * //

dimensions      [0 2 -3 0 0 0 0];


internalField   uniform 90;

boundaryField
{
    front
    {
        type            wedge;
    }
    back
    {
        type            wedge;
    }
    walls
    {
        type            epsilonWallFunction;
        value           uniform 90;
    }
    inlet
    {

      //  type            fixedValue;
      //  value           uniform 90;
        type            zeroGradient;
        /*
        type            epsilonWallFunction;
        value           uniform 90;
        */
    }
    outlet
    {
        type            zeroGradient;
    }
    axis
    {
        type            empty;
    }
}


// ************************************************************************* //
