/*--------------------------------*- C++ -*----------------------------------*\
| =========                 |                                                 |
| \\      /  F ield         | OpenFOAM: The Open Source CFD Toolbox           |
|  \\    /   O peration     | Version:  v2006                                 |
|   \\  /    A nd           | Website:  www.openfoam.com                      |
|    \\/     M anipulation  |                                                 |
\*---------------------------------------------------------------------------*/
FoamFile
{
    version     2.0;
    format      binary;
    class       volScalarField;
    arch        "LSB;label=32;scalar=64";
    location    "0";
    object      p;
}
// * * * * * * * * * * * * * * * * * * * * * * * * * * * * * * * * * * * * * //

dimensions      [1 -1 -2 0 0 0 0];


internalField   uniform 101325;

boundaryField
{
    front
    {
        type            wedge;
    }
    back
    {
        type            wedge;
    }
    walls
    {
        type            zeroGradient;
    }
    fuelInlet
    {
        //type            zeroGradient;
        type            fixedValue;
        value           uniform 1e06;
    }
    oxidizerInlet
    {
        type            zeroGradient;
        //type            fixedValue;
        //value           uniform 1e06;
    }
    outlet
    {
	      type		freestream;
	      freestreamValue uniform 101325;
	      //type 		  fixedValue;
        //value 		uniform 101325;
    }
    axis
    {
        type            empty;
    }
}


// ************************************************************************* //
